      12
 i =       76, E =      -100.1245953981
 Ca         6.1892432187        5.7215481092       -1.9691591736
  O         6.4189390986        6.0444042697        0.0359273390
  H         6.5125128231        6.1055288054        0.9778959914
  C         6.5956609853        4.3133919161       -3.8617760263
  H         7.0762862818        3.4172479337       -4.2259184440
  C         5.4342345947        4.6812840467       -4.6646238910
  H         4.8098363062        3.8107146135       -4.8383091909
  H         5.6530887014        5.1787695134       -5.6137239519
  O         4.6397670269        5.6727609672       -3.8774200946
  H         4.1457681560        6.2273594906       -4.4812814180
  O         7.5467576117        5.4856268039       -3.9707558164
  H         8.4354910380        5.1385933225       -3.9198466907