       8
 i =       37, E =       -45.9646308111
  C         0.0085016412       -0.0922691107       -0.4940546124
  H         0.3025007630        0.3190305619       -1.4464169797
  C         0.4027262009        0.4727317685        0.6370496195
  H         0.1274801257        0.0762403431        1.6006129810
  O        -0.7022706030       -1.2641661292       -0.5111739400
  H        -1.1553601355       -1.3299342929       -1.3490436745
  O         1.2639612992        1.5444386532        0.6083072229
  H         1.2097725134        2.0003407311        1.4454569903